# vtk DataFile Version 2.0
Unstructured Grid
ASCII
DATASET UNSTRUCTURED_GRID
POINTS 1793 double
0 0 331.176
700 0 312.727
0 808.226 331.176
700 808.226 312.727
135.398 0 338.964
135.398 808.226 338.964
540.679 0 313.605
540.679 808.226 313.605
45.0833 0 334.568
90.2172 0 337.207
172.308 0 337.707
209.178 0 335.621
246.068 0 333.894
282.958 0 332.257
319.76 0 329.241
356.596 0 326.728
393.264 0 322.383
430.052 0 319.646
466.939 0 317.841
503.804 0 315.635
580.507 0 312.338
620.331 0 310.847
660.185 0 311.089
45.0833 808.226 334.568
90.2172 808.226 337.207
172.308 808.226 337.707
209.178 808.226 335.621
246.068 808.226 333.894
282.958 808.226 332.257
319.76 808.226 329.241
356.596 808.226 326.728
393.264 808.226 322.383
430.052 808.226 319.646
466.939 808.226 317.841
503.804 808.226 315.635
580.507 808.226 312.338
620.331 808.226 310.847
660.185 808.226 311.089
0 40.4113 331.176
0 80.8226 331.176
0 121.234 331.176
0 161.645 331.176
0 202.056 331.176
0 242.468 331.176
0 282.879 331.176
0 323.29 331.176
0 363.702 331.176
0 404.113 331.176
0 444.524 331.176
0 484.935 331.176
0 525.347 331.176
0 565.758 331.176
0 606.169 331.176
0 646.581 331.176
0 686.992 331.176
0 727.403 331.176
0 767.814 331.176
700 40.4113 312.727
700 80.8226 312.727
700 121.234 312.727
700 161.645 312.727
700 202.056 312.727
700 242.468 312.727
700 282.879 312.727
700 323.29 312.727
700 363.702 312.727
700 404.113 312.727
700 444.524 312.727
700 484.935 312.727
700 525.347 312.727
700 565.758 312.727
700 606.169 312.727
700 646.581 312.727
700 686.992 312.727
700 727.403 312.727
700 767.814 312.727
135.398 40.4113 338.964
135.398 80.8226 338.964
135.398 121.234 338.964
135.398 161.645 338.964
135.398 202.056 338.964
135.398 242.468 338.964
135.398 282.879 338.964
135.398 323.29 338.964
135.398 363.702 338.964
135.398 404.113 338.964
135.398 444.524 338.964
135.398 484.935 338.964
135.398 525.347 338.964
135.398 565.758 338.964
135.398 606.169 338.964
135.398 646.581 338.964
135.398 686.992 338.964
135.398 727.403 338.964
135.398 767.814 338.964
540.679 40.4113 313.605
540.679 80.8226 313.605
540.679 121.234 313.605
540.679 161.645 313.605
540.679 202.056 313.605
540.679 242.468 313.605
540.679 282.879 313.605
540.679 323.29 313.605
540.679 363.702 313.605
540.679 404.113 313.605
540.679 444.524 313.605
540.679 484.935 313.605
540.679 525.347 313.605
540.679 565.758 313.605
540.679 606.169 313.605
540.679 646.581 313.605
540.679 686.992 313.605
540.679 727.403 313.605
540.679 767.814 313.605
67.6375 101.028 336.16
67.6375 222.262 336.16
67.6375 303.085 336.16
222.173 101.028 334.942
261.783 343.496 333.299
67.6375 383.907 336.16
67.6375 464.73 336.16
67.6375 545.552 336.16
67.6375 626.375 336.16
67.6375 707.198 336.16
261.783 585.964 333.299
222.173 707.198 334.942
620.331 101.028 310.847
453.943 101.028 318.516
620.331 262.673 310.847
620.331 383.907 310.847
620.331 585.964 310.847
620.331 707.198 310.847
418.865 666.786 320.081
205.301 181.851 335.871
202.235 303.085 336.069
414.337 262.673 320.257
241.061 464.73 334.113
202.235 383.907 336.069
202.235 626.375 336.069
202.235 545.552 336.069
631.262 181.851 310.826
470.819 181.851 317.637
631.262 464.73 310.826
414.337 505.141 320.257
460.914 585.964 318.154
473.886 303.085 317.451
459.328 424.319 318.236
301.345 89.621 330.553
301.345 718.605 330.553
374.973 82.7067 324.918
185.285 58.3816 337.163
185.285 749.844 337.163
490.839 58.3816 316.422
182.599 132.777 337.336
272.048 244.768 332.912
252.765 404.418 333.639
357.622 393.751 326.629
303.983 383.171 330.308
343.398 303.423 328.012
182.4 676.585 337.346
252.765 525.041 333.639
320.615 475.831 329.198
655.416 136.118 311.046
655.416 227.584 311.046
589.979 215.821 312.255
589.979 147.881 312.255
493.526 132.777 316.259
655.416 418.997 311.046
589.979 430.76 312.255
464.585 242.73 317.963
268.432 156.641 333.048
402.863 157.991 321.052
248.19 291.543 333.811
412.977 343.945 320.309
335.781 156.509 328.438
463.434 363.194 318.023
409.27 404.762 320.454
369.16 344.65 325.507
368.431 216.247 325.577
316.258 212.567 329.417
54.151 161.645 335.201
189.806 241.997 336.871
189.662 444.784 336.881
180.801 497.688 337.403
644.086 527.537 310.943
592.245 535.152 312.169
479.42 653.753 317.115
460.359 729.609 318.183
397.365 735.397 321.814
355.724 679.044 326.813
299.322 645.213 330.74
374.998 587.524 324.915
265.01 683.211 333.177
343.305 627.056 328.021
246.864 635.317 333.861
477.563 514.917 317.228
257.752 57.9503 333.451
257.752 750.275 333.451
335.778 51.7255 328.438
420.326 57.3343 320.024
375.28 457.422 324.876
346.609 748.915 327.7
417.475 561.007 320.135
359.786 523.894 326.418
306.447 545.802 330.079
494.756 462.562 316.184
597.853 323.29 311.905
648.934 312.632 310.987
597.853 646.581 311.905
648.934 635.923 310.987
0 0 39.3784
700 0 33.1055
0 808.226 39.3784
700 808.226 33.1055
34.9594 0 42.4395
70.0527 0 43.0091
105.147 0 42.3093
140.24 0 41.5312
175.34 0 41.074
210.442 0 40.7868
245.532 0 39.9295
280.541 0 37.3627
315.558 0 34.9144
350.52 0 31.7974
385.378 0 27.6866
420.266 0 23.8313
455.303 0 21.7883
490.343 0 19.7107
525.433 0 19.1168
560.528 0 19.877
595.623 0 20.6229
630.657 0 22.5938
665.535 0 26.5035
34.9594 808.226 42.4395
70.0527 808.226 43.0091
105.147 808.226 42.3093
140.24 808.226 41.5312
175.34 808.226 41.074
210.442 808.226 40.7868
245.532 808.226 39.9295
280.541 808.226 37.3627
315.558 808.226 34.9144
350.52 808.226 31.7974
385.378 808.226 27.6866
420.266 808.226 23.8313
455.303 808.226 21.7883
490.343 808.226 19.7107
525.433 808.226 19.1168
560.528 808.226 19.877
595.623 808.226 20.6229
630.657 808.226 22.5938
665.535 808.226 26.5035
0 40.4113 39.3784
0 80.8226 39.3784
0 121.234 39.3784
0 161.645 39.3784
0 202.056 39.3784
0 242.468 39.3784
0 282.879 39.3784
0 323.29 39.3784
0 363.702 39.3784
0 404.113 39.3784
0 444.524 39.3784
0 484.935 39.3784
0 525.347 39.3784
0 565.758 39.3784
0 606.169 39.3784
0 646.581 39.3784
0 686.992 39.3784
0 727.403 39.3784
0 767.814 39.3784
700 40.4113 33.1055
700 80.8226 33.1055
700 121.234 33.1055
700 161.645 33.1055
700 202.056 33.1055
700 242.468 33.1055
700 282.879 33.1055
700 323.29 33.1055
700 363.702 33.1055
700 404.113 33.1055
700 444.524 33.1055
700 484.935 33.1055
700 525.347 33.1055
700 565.758 33.1055
700 606.169 33.1055
700 646.581 33.1055
700 686.992 33.1055
700 727.403 33.1055
700 767.814 33.1055
87.6029 101.028 42.7904
333.056 145.803 33.5443
126.481 505.141 41.7185
87.6029 707.198 42.7904
578.076 141.44 20.2402
437.772 662.423 22.6477
613.16 707.198 21.2199
70.0527 181.851 43.0091
157.79 80.8226 41.2971
263.035 93.9026 38.6202
367.972 77.1018 29.936
263.035 662.423 38.6202
81.4137 585.964 42.8675
66.8209 464.73 43.0494
157.79 727.403 41.2971
620.659 222.262 21.8087
472.821 121.234 20.7073
574.286 505.141 20.1618
507.887 714.323 19.2241
402.806 731.124 25.6176
630.657 626.375 22.5938
67.8589 262.673 43.0365
227.989 731.124 40.4226
298.054 731.124 36.2024
67.8311 383.907 43.0368
631.946 303.085 22.6951
619.33 424.319 21.7044
633.879 545.552 22.8469
50.3116 58.0912 42.8449
47.4259 132.4 42.7687
114.842 54.7679 42.0035
315.843 87.8754 34.8921
76.1786 525.018 42.9328
114.842 753.458 42.0035
138.845 642.903 41.5502
404.766 148.443 25.4171
455.018 720.35 21.8023
653.159 675.826 24.9686
557.334 648.187 19.8109
196.889 226.865 40.8806
350.52 649.232 31.7974
655.885 257.151 25.3067
486.527 288.64 19.8447
624.55 485.264 22.1143
199.441 665.553 40.863
424.245 86.5204 23.4243
577.005 578.423 20.2181
128.101 224.391 41.6964
391.667 677.297 26.8739
309.237 677.297 35.4094
460.449 207.031 21.4861
560.84 274.839 19.8835
193.813 566.747 40.9019
491.201 584.903 19.6869
135.65 150.607 41.5937
159.527 334.989 41.275
229.397 613.676 40.3893
324.028 476.999 34.2512
266.013 535.458 38.3974
179.516 617.442 41.0209
531.952 543.931 19.2613
438.138 467.46 22.6298
476.994 518.778 20.4447
393.431 557.807 26.646
429.287 521.584 23.0638
381.751 483.185 28.1553
364.468 335.773 30.3562
395.454 405.95 26.3845
535.223 601.362 19.3339
205.47 140.422 40.8212
119.666 288.785 41.8513
169.968 277.154 41.1423
266.346 310.892 38.3725
222.046 279.412 40.5632
275.996 210.861 37.6638
108.741 347.179 42.1959
148.696 421.531 41.4161
366.493 236.862 30.1271
329.579 400.763 33.8166
433.185 339.285 22.8726
174.367 180.116 41.0864
256.832 154.255 39.0842
112.245 454.409 42.0854
367.984 182.376 29.9344
240.924 430.548 40.1165
311.729 342.931 35.2143
264.226 373.717 38.5311
316.817 274.503 34.8159
205.708 376.582 40.8196
400.682 287.286 25.835
415.891 232.623 24.279
520.41 398.708 19.0054
493.97 456.476 19.6101
457.224 402.266 21.689
547.314 451.947 19.602
290.22 435.33 36.7214
486.675 350.531 19.8353
543.127 337.856 19.5091
574.222 389.296 20.1604
622.253 363.232 21.9339
639.099 154.026 23.2567
619.411 78.1432 21.7107
556.16 72.8815 19.7866
526.437 124.403 19.139
535.009 202.238 19.3291
580.935 194.749 20.3018
519.507 251.944 18.9854
350.52 745.847 31.7974
54.2353 323.286 42.9485
86.1811 646.467 42.8081
560.43 708.834 19.875
136.764 569.819 41.5785
493.869 650.583 19.6129
436.671 598.174 22.7018
389.515 614.586 27.152
329.212 551.433 33.8452
300.51 610.405 36.0397
212.009 496.188 40.7759
170.81 520.495 41.1316
193.48 444.102 40.9042
496.017 169.768 19.5533
212.542 64.9558 40.7722
500.094 64.1724 19.4402
456.866 51.4153 21.7116
146.962 0 310.723
160.362 0 283.286
175.091 0 256.541
191.322 0 230.68
209.773 0 206.506
232.776 0 186.414
256.579 0 167.274
284.381 0 154.652
312.387 0 142.465
341.252 0 132.528
370.905 0 125.301
401.165 0 123.838
428.716 0 134.536
451.326 0 154.516
469.771 0 178.819
486.682 0 204.252
502.323 0 230.426
515.583 0 257.941
528.669 0 285.539
146.962 808.226 310.723
160.362 808.226 283.286
175.091 808.226 256.541
191.322 808.226 230.68
209.773 808.226 206.506
232.776 808.226 186.414
256.579 808.226 167.274
284.381 808.226 154.652
312.387 808.226 142.465
341.252 808.226 132.528
370.905 808.226 125.301
401.165 808.226 123.838
428.716 808.226 134.536
451.326 808.226 154.516
469.771 808.226 178.819
[...]
POINT_DATA 1793
SCALARS Corrected_Pressure double
LOOKUP_TABLE default
500
253.811
250.081
1
351.97
247.93
257.297
160.556
394.478
366.399
338.143
324.998
313.617
304.004
295.031
287.1
279.923
272.861
266.875
261.486
256.124
254.847
254.159
249.617
248.814
244.842
240.766
235.945
230.369
224.145
216.991
208.45
198.426
187.187
174.031
145.568
125.966
97.8624
400.353
370.67
347.346
332.395
320.254
309.783
300.869
292.967
285.881
279.667
274.1
269.075
264.591
260.843
257.597
254.965
252.9
251.42
250.499
253.271
252.383
250.942
248.86
246.271
243.039
239.277
234.885
229.885
224.364
218.184
211.206
203.364
194.127
183.555
171.131
154.778
130.761
101.759
347.685
340.313
332.326
322.804
313.432
304.999
296.964
289.464
282.904
276.986
271.582
266.698
262.393
258.63
255.462
252.806
250.749
249.22
248.33
256.929
255.845
254.315
252.339
249.777
246.507
242.658
238.392
233.535
228.171
222.417
216.011
208.949
201.616
193.638
185.356
177.709
170.933
163.508
348.007
313.027
295.76
313.473
272.527
282.027
270.798
262.039
255.614
251.388
244.591
241.702
252.887
266.323
242.184
228.292
191.957
158.098
210.707
305.567
285.979
260.383
259.424
273.819
248.187
254.9
248.345
259.2
215.923
230.914
211.976
247.949
235.06
295.639
229.432
280.894
329.739
244.672
262.492
318.883
284.272
265.461
253.149
261.685
266.192
247.2
251.331
248.131
250.674
244.675
247.005
251.496
259.171
222.724
222.568
255.005
296.745
271.205
281.515
251.548
283.221
242.444
244.571
257.623
272.166
280.965
330.054
297.775
267.198
261.914
204.109
204.617
198.269
193.61
210.093
222.908
234.415
227.57
236.906
228.999
242.554
219.726
308.141
235.164
290.001
273.667
242.834
220.602
223.079
236.984
242.38
225.31
236.441
236.559
179.367
177.501
500
254.719
248.696
1
418.74
377.334
356.19
339.521
327.203
316.44
307.056
298.918
291.198
284.103
277.724
272.538
267.837
264.168
261.371
258.962
257.141
255.885
255.177
248.454
247.588
246.054
243.906
241.276
237.979
233.671
228.821
222.902
216.3
208.945
201.451
193.798
184.847
175.259
164.258
150.782
128.983
101.356
401.019
366.261
346.07
330.139
317.772
307.966
299.081
290.971
284.278
278.044
272.449
267.658
263.249
259.501
256.287
253.712
251.657
249.964
249.039
254.319
253.543
251.833
249.904
247.186
244.035
240.222
236.05
231.253
225.652
219.451
212.786
205.071
196.642
186.615
174.887
159.334
136.735
107.898
338.949
280.845
261.421
248.889
254.362
207.797
166.058
319.187
324.736
298.663
278.893
235.915
256.101
268.775
244.287
247.261
263.092
214.379
188.309
207.945
185.384
300.612
237.6
227.542
279.737
239.531
224.517
203.197
366.762
336.217
343.195
288.175
261.705
246.247
249.135
269.59
198.434
169.023
189.84
294.261
223.879
243.287
248.87
214.689
243.223
270.08
200.649
302.981
214.35
228.419
258.733
245.018
250.763
209.65
316.629
281.524
243.523
245.277
246.294
248.112
211.367
232.175
220.744
226.53
226.103
236.914
256.98
245.045
201.342
305.43
292.296
289.544
273.014
283.107
284.32
283.122
269.845
267.401
253.759
248.573
305.339
293.738
267.943
272.206
260.922
262.961
265.184
270.517
271.146
257.984
261.429
233.813
227.852
238.755
224.395
254.456
242.487
239.473
231.648
232.911
251.319
254.998
258.106
258.148
252.785
250.849
249.709
217.763
289.904
251.757
177.212
254.702
199.748
214.889
220.773
236.346
235.045
256.115
256.913
263.964
258.067
312.293
262.458
266.992
348.55
343.984
336.946
331.198
324.207
316.803
309.873
302.023
294.838
288.167
281.532
275.213
270.061
266.598
263.89
261.936
260.238
259.014
258.125
247.274
246.245
245.083
243.398
241.355
238.466
235.037
230.748
225.859
220.205
213.373
205.55
197.699
190.693
184.441
178.593
173.365
168.672
163.76
328.448
284.249
260.934
247.71
256.891
209.984
180.678
314.467
321.971
301.296
282.792
237.928
255.179
267.81
243.869
250.039
265.727
217.565
193.065
211.407
193.341
298.565
238.061
230.095
278.382
242.143
227.834
207.777
340.97
326.863
331.503
291.658
260.899
245.212
249.045
271.955
202.109
182.423
195.657
294.754
227.06
246.018
251.534
218.35
243.187
272.813
205.499
301.882
217.555
231.125
261.058
247.749
251.216
212.192
314.495
281.461
244.604
247.795
247.744
248.306
214.322
234.114
222.615
229.214
228.541
239.719
259.555
247.204
205.32
306.457
291.067
289.494
274.826
284.074
286.506
282.459
269.565
270.316
256.052
250.173
305.009
296.292
267.27
275.273
262.186
265.382
267.017
273.033
271.738
259.946
263.779
235.925
229.844
240.201
227.192
256.393
244.655
242.078
234.112
235.642
254.081
258.151
260.883
260.833
255.412
253.6
252.256
221.223
288.289
250.751
186.587
254.345
202.916
217.85
223.867
238.839
237.4
256.616
257.04
263.976
260.452
313.579
264.766
269.448
500
500
500
500
500
500
500
500
500
500
500
500
500
500
500
500
500
500
500
254.75
254.725
254.643
254.598
254.495
254.476
254.4
254.319
254.23
254.158
254.092
254.024
253.975
253.888
253.865
253.844
253.837
253.802
253.77
362.476
345.449
312.564
284.475
358.732
366.11
377.008
281.427
262.471
256.408
257.529
256.403
255.606
255.056
374.486
332.544
377.081
374.498
303.484
299.848
270.159
276.071
260.06
255.749
255.357
255.537
290.019
319.123
269.325
318.824
290.492
398.403
337.055
298.275
275.99
338.48
394.73
262.376
254.311
312.035
273.928
285.9
348.086
296.36
283.943
350.45
368.721
258.126
259.571
257.701
255.923
254.419
398.681
350.206
316.815
298.486
287.159
273.071
264.165
257.536
255.245
258.223
333.891
262.914
269.776
302.69
279.602
351.683
266.381
272.577
289.89
280.693
255.719
254.693
254.415
255.106
260.869
257.127
257.175
289.131
257.668
301.842
316.013
277.027
278.598
289.282
279.996
270.019
261.09
317.929
260.373
363.397
256.228
382.172
396.134
371.313
289.265
278.262
264.015
312.696
335.874
349.503
349.76
328.168
327.43
254.202
267.035
305.686
298.413
248.749
248.737
248.798
248.844
248.912
249.007
249.123
249.166
249.274
249.384
249.485
249.608
249.735
249.835
249.88
249.96
250.019
250.055
250.068
1
1
1
1
1
1
1
1
1
1
1
1
1
1
1
1
1
1
1
246.928
245.85
236.447
215.569
247.723
248.638
249.243
213.541
180.836
139.996
158.838
149.355
144.304
135.487
247.774
242.957
248.308
248.034
231.775
229.475
198.095
206.894
169.981
130.241
127.136
125.998
220.182
238.063
192.322
239.021
220.479
248.154
244.65
227.329
205.749
245.103
249.657
180.851
106.877
235.632
202.266
217.53
246.809
225.562
214.701
247.287
248.831
163.392
169.886
161.766
147.594
114.734
248.282
245.605
238.087
228.346
219.395
202.741
185.689
153.111
113.051
160.8
243.394
177.817
194.206
229.562
208.699
246.714
190.957
199.518
220.177
210.529
144.664
116.157
114.03
125.789
175.475
155.602
158.357
221.302
157.341
228.95
237.159
205.028
207.57
219.528
209.793
195.124
176.539
238.209
172.271
248.623
149.73
248.736
249.059
248.729
221.236
209.793
180.434
236.532
243.915
246.145
245.701
241.857
241.976
106.686
192.439
232.986
227.737
357.068
281.151
337.248
356.681
252.629
266.626
252.011
371.626
323.865
294.842
275.321
296.651
359.854
368.316
325.965
250.612
261.308
253.635
259.036
271.396
251.211
369.195
305.2
289.227
367.852
250.377
251.07
250.912
384.893
386.28
342.138
284.24
361.52
343.203
332.943
270.001
264.59
250.673
254.964
311.769
279.596
249.619
260.273
251.036
312.851
267.214
253.574
335.246
272.964
286.953
262.882
253.912
314.067
260.448
332.46
323.576
304.619
283.596
295.56
318.602
256.752
266.084
261.795
272.408
267.317
273.995
276.407
271.753
256.575
308.985
339.024
319.982
294.585
305.333
292.221
344.721
327.984
275.764
282.426
266.495
318.625
296.208
342.97
275.362
301.042
285.56
295.405
284.415
309.873
270.749
268.616
257.369
259.895
263.668
255.395
290.192
260.367
255.301
253.311
250.862
249.864
250.484
253.829
256.202
255.713
252.465
257.046
279.662
378.991
357.203
254.787
333.37
260.292
266.638
273.108
282.976
288.503
308.599
321.301
313.803
258.976
307.207
258.598
263.16
252.52
228.345
250.059
251.804
166.896
207.629
144.912
253.155
248.582
238.169
222.465
237.232
252.143
252.925
247.658
144.371
200.467
166.493
189.243
214.968
135.437
253.184
241.205
232.515
252.983
135.158
144.039
133.112
253.9
253.989
251.269
230.995
252.471
250.476
249.054
215.497
203.493
116.168
173.039
245.016
224.401
115.665
196.706
139.114
244.104
211.663
165.769
250.34
217.268
230.848
203.413
173.546
244.765
194.384
249.953
248.001
241.098
229.066
236.912
246.033
182.33
207.861
198.279
216.946
209.748
219.348
222.713
216.92
181.096
244.454
250.747
247.311
237.449
242.536
236.39
251.225
248.641
222.576
228.278
209.238
247.091
238.853
250.964
222.438
240.133
231.221
237.54
230.626
243.864
216.065
213.037
186.394
194.047
203.658
177.253
233.888
196.384
179.869
167.084
142.029
131.239
144.582
176.184
186.019
183.172
165.68
187.707
224.357
253.561
251.895
171.457
249.289
193.482
207.882
217.702
228.087
232.34
243.195
246.886
244.969
194.653
243.812
193.773
204.569
300.24
294.013
249.134
217.137
265.41
291.264
243.413
248.328
228
247.098
241.375
262.638
247.545
301.003
294.603
220.392
247.64
242.532
247.231
238.462
247.926
252.881
224.883
219.313
291.279
277.577
249.219
294.902
239.299
237.986
221.621
302.345
322.446
296.055
326.399
250.153
246.804
237.741
274.687
260.417
304.482
282.685
271.322
279.483
285.393
323.988
293.166
244.472
215.595
269.704
268.347
241.731
232.344
290.668
317.245
236.285
222.83
221.83
253.675
251.363
225.583
229.346
222.958
294.09
297.479
241.754
229.918
171.158
302.731
284.906
306.568
234.653
171.076
173.73
219.696
172.31
227.412
315.084
233.089
174.486
175.081
177.644
180.285
183.503
187.421
194.268
203.323
247.671
312.67
207.76
190.516
198.453
212.065
217.127
220.293
223.309
229.98
228.196
255.696
247.162
248.375
227.481
190.304
259.629
259.04
348.392
236.393
276.147
276.949
254.115
189.053
217.384
205.724
314.416
325.694
277.879
367.964
302.563
417.17
327.25
275.531
398.86
280.077
372.085
260.827
293.2
254.022
255.301
225.44
250.296
247.583
237.42
255.36
148.887
303.149
233.687
226.62
249.138
189.81
279.044
248.124
239.813
227.337
225.813
253.262
273.328
302.591
337.708
133.126
346.169
354.269
259.447
219.715
341.475
230.997
158.146
249.114
389.545
261.255
249.611
258.999
284.375
318.302
177.182
256.745
283.299
321.999
325.871
113.114
255.835
250.766
244.057
278.404
272.06
186.701
269.082
198.066
346.058
403.49
229.37
252.356
247.145
318.04
222.793
285.18
220.356
296.59
220.812
250.618
185.4
249.796
299.904
275.814
261.563
233.85
193.845
237.188
220.917
207.889
253.935
251.241
244.025
253.394
254.284
200.59
254.609
214.163
395.152
206.375
257.501
247.85
221.985
275.249
254.612
84.6083
301.841
259.072
358.229
203.627
247.366
253.76
247.217
336.679
239.354
276.013
339.622
405.796
396.243
248.804
290.164
282.185
263.76
301.744
95.8159
417.699
415.494
190.276
290.799
280.835
133.751
254.032
232.78
163.043
253.747
232.543
230.752
260.63
130.947
242.388
253.751
258.768
343.046
251.119
204.572
173.402
263.431
254.785
191.228
242.508
270.217
243.417
216.723
271.877
310.059
206.302
288.649
250.136
147.557
291.226
301.329
283.647
266.053
249.747
266.405
289.382
240.595
263.642
250.065
248.127
318.853
182.383
203.914
161.922
230.058
284.532
254.072
218.814
291.318
300.454
230.124
222.341
267.718
221.634
289.644
254.24
306.418
91.577
372.27
411.328
270.136
250.438
311.835
249.699
257.969
336.337
254.291
218.531
219.256
252.779
286.61
277.746
213.555
333.106
213.351
235.672
253.922
248.914
121.816
287.89
250.139
293.287
291.286
227.271
288.934
231.203
217.961
143.401
250.261
225.835
157.292
239.643
232.498
230.372
202.059
244.664
265.812
251.896
254.141
218.23
300.089
250.662
234.587
249.927
254.831
230.303
150.122
254.306
97.8809
252.944
326.844
252.695
319.196
257.744
364.023
297.458
258.554
149.817
282.529
250.464
247.382
248.25
185.483
92.3086
246.45
403.852
235.412
308.464
249.061
333.724
249.606
263.344
190.894
227.512
416.09
249.602
253.034
250.11
258.245
261.686
424.689
239.875
305.193
355.606
143.422
363.84
259.74
248.707
348.375
226.565
219.483
249.041
263.932
309.579
280.319
301.502
82.605
251.196
255.815
176.231
428.605
221.451
197.94
245.034
419.672
257.33
350.777
300.115
251.084
222.108
355.178
232.714
268.076
295.529
276.303
190.894
239.519
92.0556
193.662
180.92
285.61
260.393
276.977
316.14
247.276
154.771
211.462
265.542
251.461
99.0612
214.126
246.346
195.729
269.363
277.354
396.803
203.725
209.312
334.161
413.776
271.175
416.736
295.72
255.703
190.602
211.455
150.319
254.395
252.138
343.636
249.888
249.214
278.446
175.903
276.668
248.573
290.507
79.7184
248.68
224.866
217.053
199.445
291.293
426.614
274.156
271.843
129.152
212.979
253.945
307.224
298.916
287.196
429.19
420.519
235.389
250.247
220.228
251.303
261.286
216.35
254.472
285.288
250.106
284.833
390.573
303.313
217.851
254.211
267.355
249.047
319.093
248.868
231.435
244.367
253.233
249.128
254.124
74.5632
240.793
419.848
250.876
254.18
253.965
254.112
254.231
166.898
169.866
188.614
316.303
250.618
331.533
251.672
260.694
250.286
272.573
82.1423
212.505
90.5863
323.396
252.555
82.7879
78.0088
249.578
249.047
225.784
174.065
248.918
249.314
435.384
226.266
303.323
248.868
223.125
254.8
264.006
276.553
285.957
215.803
231.073
439.406
61.5024
397.514
249.788
250.042
104.447
237.612
249.602
250.078
314.504
265.026
306.099
79.5231
193.29
76.3951
209.64
249.418
186.986
176.995
249.792
286.494
162.289
246.044
292.393
115.696
308.751
208.587
254.129
258.919
358.976
253.652
254.019
254.571
68.848
254.703
269.676
269.582
169.342
253.569
163.936
71.5222
270.784
453.536
111.422
250.053
81.5708
254.901
431.958
251.985
245.898
282.37
305.781
249.94
231.882
254.048
295.416
288.254
270.908
311.783
274.713
86.7249
191.345
237.389
199.679
254.439
253.97
167.374
65.5658
153.363
158.617
155.052
284.125
315.298
203.061
429.202
370.08
249.419
254.113
215.624
220.046
232.035
212.478
166.15
201.318
252.327
249.867
224.359
253.939
248.839
255.655
245.497
57.3251
263.369
102.263
239.574
227.035
382.593
394.975
256.436
427.874
389.779
252.008
234.211
243.658
159.636
249.892
106.469
185.919
440.95
81.8754
313.002
248.878
243.919
260.246
266.873
178.447
264.109
254.925
267.675
254.441
180.813
263.149
257.989
254.777
254.33
148.765
254.013
165.166
323.615
176.05
82.2946
265.083
248.14
248.721
254.693
254.541
243.847
SCALARS TOF double
LOOKUP_TABLE default
0
621.06
540.401
329.662
11.0765
444.551
253.592
419.597
2.56867
4.71445
20.6339
36.7969
54.6705
74.9578
88.7653
114.149
135.91
155.819
179.696
217.179
307.028
324.799
440.061
411.353
404.726
416.528
421.271
447.606
434.767
430.646
445.077
453.57
434.87
444.607
427.535
397.237
363.693
333.478
1.518
3.55533
7.3953
12.0013
18.938
25.1859
33.5965
41.83
51.7873
63.965
77.3196
90.8543
107.357
121.796
148.2
177.537
207.518
276.595
354.994
457.013
442.545
462.58
459.021
452.152
447.034
433.832
423.655
418.299
429.347
384.044
371.993
377.588
372.853
361.644
352.647
351.208
335.333
325.639
12.7605
14.2064
16.4484
23.7029
29.6599
36.2975
43.194
46.9016
61.3648
77.7219
84.2679
101.29
113.198
132.426
155.863
183.587
213.64
262.709
339.573
254.798
250.499
248.934
252.725
264.841
283.352
281.444
265.777
280.501
278.835
274.543
283.093
280.674
292.145
298.312
304.3
310.518
334.186
379.698
8.86497
26.309
38.8634
45.776
132.318
61.9495
87.1515
117.407
170.56
262.05
207.179
297.672
330.26
180.819
315.842
334.062
327.02
313.205
315.28
58.3891
84.1582
182.573
155.755
104.427
206.602
159.851
360.826
206.685
339.232
253.599
288.125
224.475
251.212
81.1635
353.877
128.978
31.8175
360.499
206.977
35.0961
89.624
149.332
194.376
160.14
140.397
252.874
183.343
200.194
406.383
394.153
284.037
285.664
214.4
365.25
315.157
217.965
80.8998
154.891
99.4071
193.772
111.702
232.424
211.903
173.855
138.673
104.821
14.7367
70.9586
118.478
136.573
350.002
299.844
317.334
385.27
384.532
320.049
278.427
257.099
302.667
270.169
243.491
279.515
56.9343
389.062
98.7065
156.65
217.138
412.474
259.863
239.573
215.312
271.182
301.07
388.737
306.011
336.527
0
355.271
518.543
247.883
0.562249
2.56245
4.15365
8.59683
14.384
19.0298
24.1223
34.9187
41.1447
48.1424
57.821
66.3719
78.7894
90.4027
107.199
130.606
163.721
221.145
291.523
501.007
467.404
468.22
420.343
347.702
335.175
365.913
329.924
306.512
318.438
309.444
302.196
295.783
311.214
310.718
295.888
273.29
266.18
251.174
0.809442
4.00564
6.72878
11.4828
21.0711
27.8951
35.2662
44.2165
53.836
61.9167
77.2015
92.8052
101.901
117.622
150.982
177.168
204.879
251.796
327.033
378.557
312.739
287.111
310.787
268.775
278.387
288.213
277.744
283.882
260.851
259.112
259.892
254.924
261.43
261.014
251.934
258.454
250.612
244.195
10.7748
50.5447
99.1988
220.506
148.078
186.448
227.792
18.2122
15.7625
28.5479
52.3858
181.719
134.164
77.9275
246.532
212.96
92.8868
207.275
220.005
271.021
233.474
30.8725
290.227
284.476
63.6506
233.714
234.067
246.764
3.58407
9.61731
6.42302
38.8294
102.836
310.599
176.643
75.1615
255.337
246.047
195.738
38.5284
175.437
260.941
108.756
240.474
201.841
69.5859
210.364
28.4732
210.289
184.457
98.6796
169.272
121.029
164.128
19.5727
50.4967
144.086
111.036
125.771
132.891
164.793
133.128
148.515
141.154
136.391
120.012
90.5024
109.57
171.982
26.3319
42.1581
38.1772
63.333
48.4188
51.6563
53.6486
73.3695
72.116
94.9286
108.427
26.7971
36.3367
82.5094
66.4903
85.3944
78.0153
78.1829
67.9319
66.6039
91.1063
87.6135
151.041
143.384
124.296
181.989
93.2953
119.051
147.84
185.379
225.44
224.586
204.916
134.609
108.408
130.831
158.856
126.108
291.689
43.9346
170.189
220.747
124.545
181.674
159.687
162.815
132.89
152.664
101.285
107.025
81.2159
116.012
21.7243
95.7619
78.5802
12.7953
16.8922
18.8509
22.956
24.4406
27.0393
29.885
36.5291
42.7755
49.0572
59.3548
68.3565
82.9223
110.251
137.884
164.234
189.939
217.251
229.17
445.473
400.79
418.537
403.578
386.182
372.342
379.368
363.938
361.813
357.204
356.905
345.985
344.425
344.363
354.685
375.583
397.849
418.646
421.034
24.3376
58.9678
110.661
234.524
180.808
206.657
312.904
35.1365
26.8181
34.0218
54.3691
207.103
150.152
91.7454
251.174
215.099
91.892
234.086
260.608
278.688
282.226
45.163
263.443
266.345
74.6371
239.919
244.848
273.562
18.3706
20.4178
18.9958
45.1058
116.593
339.355
197.41
67.4317
266.449
304.545
256.157
46.7171
190.681
257.325
104.883
254.784
223.655
69.5237
248.777
45.4479
223.003
205.049
91.6552
180.512
144.293
188.299
30.276
65.0164
176.017
108.521
142.741
174.556
209.39
130.511
162.5
140.821
135.514
120.216
89.8075
105.904
219.067
33.9348
60.3647
51.729
73.5325
56.6438
49.2967
71.2457
80.4502
74.7211
99.6512
106.879
33.2082
45.973
94.9695
63.3608
104.445
79.3781
88.1265
65.9108
83.5486
84.4494
84.2209
165.99
160.752
131.907
194.98
107.89
126.804
161.018
205.978
232.095
235.176
210.798
164.557
120.75
143.014
178.076
135.705
292.496
56.5939
191.359
284.392
163.18
202.268
164.303
168.682
138.994
174.897
113.488
120.205
98.6391
114.303
30.3851
114.087
82.5915
0
0
0
0
0
0
0
0
0
0
0
0
0
0
0
0
0
0
0
491.986
534.559
500.072
476.167
430.55
469.129
504.79
510.319
446.589
455.189
501.85
544.96
591.072
590.905
637.172
650.898
627.254
620.236
568.618
2.58852
9.5269
21.6653
84.2234
6.30315
4.66106
3.71595
49.9289
101.37
182.947
162.085
212.214
268.545
308.998
3.16599
10.8076
2.82057
3.0847
29.4273
34.6952
71.5599
59.2769
121.464
204.761
240.245
225.579
84.286
44.2386
163.575
21.429
94.0628
1.31617
13.5901
59.7709
89.4065
14.7267
1.90691
105.498
372.087
40.0021
112.252
67.2794
10.2931
71.2584
92.3795
11.3634
4.34347
206.021
157.04
227.699
263.422
331.578
1.2497
5.94023
19.5009
34.3267
46.8729
62.3929
91.0267
151.066
238.199
139.381
26.5957
199.201
157.017
60.8474
115.343
6.12983
84.3658
120.149
79.805
112.313
243.562
296.232
306.86
245.308
139.127
172.698
250.186
42.4118
161.181
72.3636
44.2199
142.143
125.642
90.1441
109.173
154.05
116.257
32.2899
120.854
6.97122
281.256
1.88588
1.42954
2.78497
42.087
53.825
192.523
24.3507
12.55
6.73697
6.90785
15.7144
16.7708
358.153
81.1707
30.8849
48.9651
557.955
547.647
622.557
590.037
574.126
547.753
546.476
535.798
560.198
556.295
554.437
568.176
585.038
624.994
611.241
624.16
596.37
568.194
551.143
251.16
252.493
253.364
255.948
259.308
262.448
266.652
269.222
273.743
279.464
286.161
293.741
303.943
309.999
317.268
324.682
328.894
332.179
330.179
470.684
398.022
352.592
386.454
445.219
502.345
519.004
329.998
314.91